# vtk DataFile Version 2.0
2D_box_resonant_mode, Created by Gmsh 4.11.1 
ASCII
DATASET UNSTRUCTURED_GRID
POINTS 144 double
0 0 0
1 0 0
1 1 0
0 1 0
0.1 0 0
0.2 0 0
0.3 0 0
0.4 0 0
0.5 0 0
0.6 0 0
0.7 0 0
0.8 0 0
0.9 0 0
1 0.1 0
1 0.2 0
1 0.3 0
1 0.4 0
1 0.5 0
1 0.6 0
1 0.7 0
1 0.8 0
1 0.9 0
0.9 1 0
0.8 1 0
0.7 1 0
0.6 1 0
0.5 1 0
0.4 1 0
0.3 1 0
0.2 1 0
0.09999999999999998 1 0
0 0.9 0
0 0.8 0
0 0.7 0
0 0.6 0
0 0.5 0
0 0.4 0
0 0.3 0
0 0.2 0
0 0.09999999999999998 0
0.4503351224248817 0.08552481249556187 0
0.09500008811816091 0.5360897063089831 0
0.9154700538379251 0.55 0
0.55 0.9133974596215562 0
0.9133974596215562 0.35 0
0.3499999999999999 0.9166917272975403 0
0.0885799513406248 0.3487241095150168 0
0.6499999999999999 0.08660254037844384 0
0.911274902235089 0.7479584671629046 0
0.0666073435388419 0.7509807621135332 0
0.2451447489684853 0.08548460834199267 0
0.7468074574736496 0.9199358737117771 0
0.9042087355341464 0.1586114968077362 0
0.1504237369280876 0.9153227954944168 0
0.08758815375096657 0.1626736524781354 0
0.7491826982387223 0.08613067098656113 0
0.6988274859316025 0.1725281294438699 0
0.6 0.1732050807568877 0
0.6487682838804159 0.2590964895021245 0
0.5493388372168183 0.2581828604573275 0
0.5990275341421517 0.3456415350611096 0
0.5 0.3464101615137753 0
0.5491809363163046 0.4325052864159776 0
0.4498634893860508 0.4329281326461789 0
0.4998407376170592 0.5195165781502827 0
0.5991799596148399 0.5210223955046266 0
0.3999507045005184 0.5195847033762595 0
0.4499652403529296 0.6061962488133096 0
0.3982773339266489 0.3423653238321051 0
0.349985990808908 0.60620910386074 0
0.2999894492182378 0.5196087059902013 0
0.402461508336276 0.6913894423059883 0
0.5004044581148676 0.6925782539346573 0
0.6918389297917822 0.3486154404499628 0
0.3028775530001671 0.6878853441132502 0
0.4510740880288485 0.7764279568051837 0
0.5499999999999999 0.7794228634059945 0
0.6000674096858112 0.692779978178735 0
0.6499999999999999 0.7794228634059944 0
0.7000112349476351 0.6928135988860813 0
0.7481097702627343 0.7782794121443782 0
0.8142924470606381 0.6964433644800019 0
0.7550548476321185 0.6044024756151734 0
0.7975449844882867 0.1645597326712753 0
0.8440998679068055 0.905438776345506 0
0.2500706228213478 0.9142673935463635 0
0.1994880895108668 0.8368494233311482 0
0.3023960885313388 0.8408407470516976 0
0.5503909761623619 0.08622943604241329 0
0.2522704180809978 0.6043564532104009 0
0.2025304800344835 0.6769761732657189 0
0.2000000000000001 0.5196152422706629 0
0.2499401513158808 0.4312285146724354 0
0.1501367561624615 0.4370593117645475 0
0.1950094306185093 0.3447792998707252 0
0.1418742073530141 0.2584325597306054 0
0.2408762596010399 0.2545762813496568 0
0.2958106379186047 0.34174213280204 0
0.3430275473740255 0.2521110218049196 0
0.4470508096194659 0.2542632841826011 0
0.1872668979452735 0.1707679483020325 0
0.9137428919909509 0.45 0
0.8129265108728716 0.5121917976130034 0
0.65 0.9133974596215562 0
0.09490381566310424 0.6575361492677109 0
0.3464779113497941 0.08522492645217111 0
0.9133974596215562 0.6499999999999999 0
0.8300432068916745 0.4020319662688339 0
0.836333000780765 0.3063914568385286 0
0.7417301811123924 0.4350614461303674 0
0.9163519627297483 0.2575169909599159 0
0.45 0.9152489067617474 0
0.5499096342309179 0.6063852062051197 0
0.3489719610443236 0.4312429188865367 0
0.6507038476852204 0.6080572936775976 0
0.4995192909039213 0.1708841809212815 0
0.6468262568295784 0.4356310352063157 0
0.3949663797295809 0.170074792023185 0
0.9200321612001887 0.8466710755448443 0
0.8462885562507112 0.08041783020374343 0
0.09050477666319534 0.8424515154824569 0
0.1529066849027915 0.08226153084753535 0
0.7558129065816803 0.2616128915741417 0
0.2902249972691848 0.1704877192085877 0
0.7007644766365501 0.5226931788296576 0
0.8380232778161258 0.7998342905175431 0
0.841371755443966 0.6018625196725969 0
0.1666062618305848 0.5992248177604966 0
0.351468206316105 0.767151939451745 0
0.06739813568134601 0.4485356688665424 0
0.6 0.8464101615137752 0
0.7 0.8464101615137752 0
0.5000000000000001 0.8464101615137753 0
0.2509294421890869 0.7602703415962895 0
0.3999999999999999 0.8465605252990185 0
0.06187004362063597 0.25 0
0.9267949192431122 0.07320508075688775 0
0.07320508075688764 0.07320508075688764 0
0.9267949192431123 0.9267949192431123 0
0.07320508075688764 0.9267949192431124 0
0.1542089042252694 0.7557860304501967 0
0.775408074691863 0.849979702846596 0
0.7732050807568878 0.35 0
0.8441725804420223 0.2300989921132305 0

CELLS 286 1104
2 0 4
2 4 5
2 5 6
2 6 7
2 7 8
2 8 9
2 9 10
2 10 11
2 11 12
2 12 1
2 1 13
2 13 14
2 14 15
2 15 16
2 16 17
2 17 18
2 18 19
2 19 20
2 20 21
2 21 2
2 2 22
2 22 23
2 23 24
2 24 25
2 25 26
2 26 27
2 27 28
2 28 29
2 29 30
2 30 3
2 3 31
2 31 32
2 32 33
2 33 34
2 34 35
2 35 36
2 36 37
2 37 38
2 38 39
2 39 0
3 82 124 102
3 41 93 91
3 81 106 48
3 90 140 104
3 104 140 49
3 41 129 93
3 102 126 82
3 48 125 81
3 102 124 109
3 54 100 95
3 98 99 68
3 117 123 105
3 95 135 54
3 97 98 68
3 120 140 86
3 46 95 94
3 81 126 106
3 104 127 90
3 97 113 92
3 46 94 93
3 53 120 86
3 116 124 65
3 83 119 52
3 61 99 59
3 68 99 61
3 98 123 117
3 68 113 97
3 94 97 92
3 109 116 73
3 81 125 80
3 128 133 74
3 91 127 41
3 52 143 83
3 109 124 116
3 84 125 118
3 95 96 94
3 99 115 59
3 49 140 120
3 105 123 50
3 96 97 94
3 95 100 96
3 100 121 50
3 87 133 128
3 96 98 97
3 50 123 100
3 28 85 45
3 29 85 28
3 67 71 69
3 71 74 69
3 85 87 45
3 47 88 9
3 41 104 34
3 58 59 57
3 58 60 59
3 7 105 6
3 10 47 9
3 10 55 47
3 35 41 34
3 56 58 57
3 14 110 52
3 16 44 15
3 16 101 44
3 42 101 17
3 19 106 18
3 20 48 19
3 48 106 19
3 23 84 22
3 24 51 23
3 24 103 51
3 26 43 25
3 43 103 25
3 26 111 43
3 53 85 29
3 42 102 101
3 101 107 44
3 108 110 44
3 55 56 47
3 64 112 67
3 65 114 112
3 67 72 71
3 69 89 70
3 74 89 69
3 89 91 70
3 72 76 75
3 72 112 77
3 77 78 76
3 112 114 77
3 8 88 40
3 11 55 10
3 33 49 32
3 6 50 5
3 8 40 7
3 14 52 13
3 37 46 36
3 55 83 56
3 62 63 61
3 64 66 63
3 91 92 70
3 86 87 85
3 39 54 38
3 6 105 50
3 40 105 7
3 15 110 14
3 44 110 15
3 17 101 16
3 27 111 26
3 28 45 27
3 30 53 29
3 33 104 49
3 107 108 44
3 57 88 47
3 64 67 66
3 70 113 66
3 67 112 72
3 72 75 71
3 74 90 89
3 77 114 79
3 93 94 92
3 102 107 101
3 102 109 107
3 9 88 8
3 58 73 60
3 60 61 59
3 63 68 61
3 62 65 64
3 66 113 63
3 77 79 78
3 91 93 92
3 62 64 63
3 63 113 68
3 92 113 70
3 34 104 33
3 56 57 47
3 53 86 85
3 18 42 17
3 51 84 23
3 25 103 24
3 45 111 27
3 60 62 61
3 65 112 64
3 67 69 66
3 79 81 80
3 79 82 81
3 18 106 42
3 69 70 66
3 79 80 78
3 79 114 82
3 72 77 76
3 73 142 109
3 84 141 125
3 88 115 40
3 59 115 57
3 115 117 40
3 98 117 99
3 62 116 65
3 73 116 60
3 57 115 88
3 99 117 115
3 32 120 31
3 55 119 83
3 12 119 11
3 21 118 20
3 58 122 73
3 83 122 56
3 93 129 46
3 5 121 4
3 60 116 62
3 50 121 5
3 65 124 114
3 100 123 96
3 42 126 102
3 82 126 81
3 90 127 89
3 40 117 105
3 46 135 95
3 11 119 55
3 49 120 32
3 20 118 48
3 54 121 100
3 71 128 74
3 35 129 41
3 46 129 36
3 87 134 45
3 56 122 58
3 54 135 38
3 37 135 46
3 1 136 12
3 13 136 1
3 4 137 0
3 0 137 39
3 2 138 21
3 22 138 2
3 3 139 30
3 31 139 3
3 110 143 52
3 109 142 107
3 96 123 98
3 83 143 122
3 114 124 82
3 89 127 91
3 106 126 42
3 41 127 104
3 122 142 73
3 122 143 108
3 118 125 48
3 51 141 84
3 128 134 87
3 75 128 71
3 36 129 35
3 132 134 75
3 43 130 103
3 78 130 76
3 111 132 43
3 86 133 87
3 76 132 75
3 103 131 51
3 78 131 130
3 130 131 103
3 74 133 90
3 80 131 78
3 130 132 76
3 43 132 130
3 111 134 132
3 45 134 111
3 108 142 122
3 12 136 119
3 120 139 31
3 21 138 118
3 38 135 37
3 52 136 13
3 30 139 53
3 39 137 54
3 84 138 22
3 121 137 4
3 107 142 108
3 108 143 110
3 118 138 84
3 53 139 120
3 119 136 52
3 54 137 121
3 75 134 128
3 86 140 133
3 133 140 90
3 125 141 80
3 80 141 131
3 131 141 51

CELL_TYPES 286
3
3
3
3
3
3
3
3
3
3
3
3
3
3
3
3
3
3
3
3
3
3
3
3
3
3
3
3
3
3
3
3
3
3
3
3
3
3
3
3
5
5
5
5
5
5
5
5
5
5
5
5
5
5
5
5
5
5
5
5
5
5
5
5
5
5
5
5
5
5
5
5
5
5
5
5
5
5
5
5
5
5
5
5
5
5
5
5
5
5
5
5
5
5
5
5
5
5
5
5
5
5
5
5
5
5
5
5
5
5
5
5
5
5
5
5
5
5
5
5
5
5
5
5
5
5
5
5
5
5
5
5
5
5
5
5
5
5
5
5
5
5
5
5
5
5
5
5
5
5
5
5
5
5
5
5
5
5
5
5
5
5
5
5
5
5
5
5
5
5
5
5
5
5
5
5
5
5
5
5
5
5
5
5
5
5
5
5
5
5
5
5
5
5
5
5
5
5
5
5
5
5
5
5
5
5
5
5
5
5
5
5
5
5
5
5
5
5
5
5
5
5
5
5
5
5
5
5
5
5
5
5
5
5
5
5
5
5
5
5
5
5
5
5
5
5
5
5
5
5
5
5
5
5
5
5
5
5
5
5
5
5
5
5
5
5
5
5
5
5
5
5
5
5
5
5
5
5
5
5
5
5
5
5
5
5

CELL_DATA 286
SCALARS CellEntityIds int 1
LOOKUP_TABLE default
2
2
2
2
2
2
2
2
2
2
3
3
3
3
3
3
3
3
3
3
4
4
4
4
4
4
4
4
4
4
5
5
5
5
5
5
5
5
5
5
1
1
1
1
1
1
1
1
1
1
1
1
1
1
1
1
1
1
1
1
1
1
1
1
1
1
1
1
1
1
1
1
1
1
1
1
1
1
1
1
1
1
1
1
1
1
1
1
1
1
1
1
1
1
1
1
1
1
1
1
1
1
1
1
1
1
1
1
1
1
1
1
1
1
1
1
1
1
1
1
1
1
1
1
1
1
1
1
1
1
1
1
1
1
1
1
1
1
1
1
1
1
1
1
1
1
1
1
1
1
1
1
1
1
1
1
1
1
1
1
1
1
1
1
1
1
1
1
1
1
1
1
1
1
1
1
1
1
1
1
1
1
1
1
1
1
1
1
1
1
1
1
1
1
1
1
1
1
1
1
1
1
1
1
1
1
1
1
1
1
1
1
1
1
1
1
1
1
1
1
1
1
1
1
1
1
1
1
1
1
1
1
1
1
1
1
1
1
1
1
1
1
1
1
1
1
1
1
1
1
1
1
1
1
1
1
1
1
1
1
1
1
1
1
1
1
1
1
1
1
1
1
1
1
1
1
1
1
1
1
1
1
1
1
1
1
